MODEL 1
REMARK VINA RESULT:      -0.8      0.000      0.000
REMARK  Name = benzaldehyde
REMARK  1 active torsions:
REMARK  status: ('A' for Active; 'I' for Inactive)
REMARK    1  A    between atoms: C_4  and  C_7
REMARK                            x       y       z     vdW  Elec       q    Type
REMARK                         _______ _______ _______ _____ _____    ______ ____
ROOT
ATOM      1  C   UNL     1     -17.203  11.228  39.334  0.00  0.00    +0.000 A 
ATOM      2  C   UNL     1     -16.277  10.444  38.644  0.00  0.00    +0.000 A 
ATOM      3  C   UNL     1     -16.249   9.061  38.838  0.00  0.00    +0.000 A 
ATOM      4  C   UNL     1     -17.103   8.480  39.781  0.00  0.00    +0.000 A 
ATOM      5  C   UNL     1     -18.034   9.264  40.468  0.00  0.00    +0.000 A 
ATOM      6  C   UNL     1     -18.089  10.638  40.236  0.00  0.00    +0.000 A 
ENDROOT
BRANCH   4   7
ATOM      7  C   UNL     1     -16.971   7.044  40.090  0.00  0.00    +0.000 C 
ATOM      8  O   UNL     1     -17.822   6.433  40.732  0.00  0.00    +0.000 OA
ENDBRANCH   4   7
TORSDOF 1
ENDMDL
MODEL 2
REMARK VINA RESULT:      -0.8      1.764      2.606
REMARK  Name = benzaldehyde
REMARK  1 active torsions:
REMARK  status: ('A' for Active; 'I' for Inactive)
REMARK    1  A    between atoms: C_4  and  C_7
REMARK                            x       y       z     vdW  Elec       q    Type
REMARK                         _______ _______ _______ _____ _____    ______ ____
ROOT
ATOM      1  C   UNL     1     -19.103  11.549  37.649  0.00  0.00    +0.000 A 
ATOM      2  C   UNL     1     -19.364  11.920  38.970  0.00  0.00    +0.000 A 
ATOM      3  C   UNL     1     -18.927  11.113  40.022  0.00  0.00    +0.000 A 
ATOM      4  C   UNL     1     -18.294   9.899  39.743  0.00  0.00    +0.000 A 
ATOM      5  C   UNL     1     -18.028   9.528  38.421  0.00  0.00    +0.000 A 
ATOM      6  C   UNL     1     -18.425  10.361  37.375  0.00  0.00    +0.000 A 
ENDROOT
BRANCH   4   7
ATOM      7  C   UNL     1     -17.965   8.980  40.850  0.00  0.00    +0.000 C 
ATOM      8  O   UNL     1     -17.864   7.767  40.684  0.00  0.00    +0.000 OA
ENDBRANCH   4   7
TORSDOF 1
ENDMDL
MODEL 3
REMARK VINA RESULT:      -0.8      2.845      3.810
REMARK  Name = benzaldehyde
REMARK  1 active torsions:
REMARK  status: ('A' for Active; 'I' for Inactive)
REMARK    1  A    between atoms: C_4  and  C_7
REMARK                            x       y       z     vdW  Elec       q    Type
REMARK                         _______ _______ _______ _____ _____    ______ ____
ROOT
ATOM      1  C   UNL     1     -20.476  10.819  41.024  0.00  0.00    +0.000 A 
ATOM      2  C   UNL     1     -21.061  11.163  39.804  0.00  0.00    +0.000 A 
ATOM      3  C   UNL     1     -20.434  10.816  38.605  0.00  0.00    +0.000 A 
ATOM      4  C   UNL     1     -19.184  10.191  38.637  0.00  0.00    +0.000 A 
ATOM      5  C   UNL     1     -18.599   9.842  39.859  0.00  0.00    +0.000 A 
ATOM      6  C   UNL     1     -19.253  10.150  41.052  0.00  0.00    +0.000 A 
ENDROOT
BRANCH   4   7
ATOM      7  C   UNL     1     -18.457   9.958  37.375  0.00  0.00    +0.000 C 
ATOM      8  O   UNL     1     -18.903   9.237  36.487  0.00  0.00    +0.000 OA
ENDBRANCH   4   7
TORSDOF 1
ENDMDL
MODEL 4
REMARK VINA RESULT:      -0.7      1.490      2.172
REMARK  Name = benzaldehyde
REMARK  1 active torsions:
REMARK  status: ('A' for Active; 'I' for Inactive)
REMARK    1  A    between atoms: C_4  and  C_7
REMARK                            x       y       z     vdW  Elec       q    Type
REMARK                         _______ _______ _______ _____ _____    ______ ____
ROOT
ATOM      1  C   UNL     1     -15.900   9.127  38.067  0.00  0.00    +0.000 A 
ATOM      2  C   UNL     1     -15.627   7.909  37.439  0.00  0.00    +0.000 A 
ATOM      3  C   UNL     1     -16.116   6.719  37.980  0.00  0.00    +0.000 A 
ATOM      4  C   UNL     1     -16.814   6.747  39.190  0.00  0.00    +0.000 A 
ATOM      5  C   UNL     1     -17.092   7.966  39.818  0.00  0.00    +0.000 A 
ATOM      6  C   UNL     1     -16.641   9.156  39.248  0.00  0.00    +0.000 A 
ENDROOT
BRANCH   4   7
ATOM      7  C   UNL     1     -17.202   5.478  39.835  0.00  0.00    +0.000 C 
ATOM      8  O   UNL     1     -18.166   5.397  40.592  0.00  0.00    +0.000 OA
ENDBRANCH   4   7
TORSDOF 1
ENDMDL
MODEL 5
REMARK VINA RESULT:      -0.7      3.223      3.654
REMARK  Name = benzaldehyde
REMARK  1 active torsions:
REMARK  status: ('A' for Active; 'I' for Inactive)
REMARK    1  A    between atoms: C_4  and  C_7
REMARK                            x       y       z     vdW  Elec       q    Type
REMARK                         _______ _______ _______ _____ _____    ______ ____
ROOT
ATOM      1  C   UNL     1     -15.074   7.091  37.032  0.00  0.00    +0.000 A 
ATOM      2  C   UNL     1     -14.629   7.425  38.313  0.00  0.00    +0.000 A 
ATOM      3  C   UNL     1     -15.309   6.950  39.436  0.00  0.00    +0.000 A 
ATOM      4  C   UNL     1     -16.478   6.201  39.268  0.00  0.00    +0.000 A 
ATOM      5  C   UNL     1     -16.921   5.861  37.986  0.00  0.00    +0.000 A 
ATOM      6  C   UNL     1     -16.211   6.300  36.869  0.00  0.00    +0.000 A 
ENDROOT
BRANCH   4   7
ATOM      7  C   UNL     1     -17.275   5.825  40.452  0.00  0.00    +0.000 C 
ATOM      8  O   UNL     1     -18.294   5.146  40.364  0.00  0.00    +0.000 OA
ENDBRANCH   4   7
TORSDOF 1
ENDMDL
MODEL 6
REMARK VINA RESULT:      -0.7      1.369      2.380
REMARK  Name = benzaldehyde
REMARK  1 active torsions:
REMARK  status: ('A' for Active; 'I' for Inactive)
REMARK    1  A    between atoms: C_4  and  C_7
REMARK                            x       y       z     vdW  Elec       q    Type
REMARK                         _______ _______ _______ _____ _____    ______ ____
ROOT
ATOM      1  C   UNL     1     -15.140   9.511  37.330  0.00  0.00    +0.000 A 
ATOM      2  C   UNL     1     -15.312  10.310  38.462  0.00  0.00    +0.000 A 
ATOM      3  C   UNL     1     -15.982   9.806  39.579  0.00  0.00    +0.000 A 
ATOM      4  C   UNL     1     -16.542   8.527  39.527  0.00  0.00    +0.000 A 
ATOM      5  C   UNL     1     -16.367   7.724  38.396  0.00  0.00    +0.000 A 
ATOM      6  C   UNL     1     -15.656   8.216  37.301  0.00  0.00    +0.000 A 
ENDROOT
BRANCH   4   7
ATOM      7  C   UNL     1     -17.374   8.053  40.650  0.00  0.00    +0.000 C 
ATOM      8  O   UNL     1     -17.784   6.897  40.716  0.00  0.00    +0.000 OA
ENDBRANCH   4   7
TORSDOF 1
ENDMDL
MODEL 7
REMARK VINA RESULT:      -0.7      2.702      3.552
REMARK  Name = benzaldehyde
REMARK  1 active torsions:
REMARK  status: ('A' for Active; 'I' for Inactive)
REMARK    1  A    between atoms: C_4  and  C_7
REMARK                            x       y       z     vdW  Elec       q    Type
REMARK                         _______ _______ _______ _____ _____    ______ ____
ROOT
ATOM      1  C   UNL     1     -17.265   9.619  37.705  0.00  0.00    +0.000 A 
ATOM      2  C   UNL     1     -17.290   9.528  39.099  0.00  0.00    +0.000 A 
ATOM      3  C   UNL     1     -18.457   9.843  39.799  0.00  0.00    +0.000 A 
ATOM      4  C   UNL     1     -19.571  10.319  39.102  0.00  0.00    +0.000 A 
ATOM      5  C   UNL     1     -19.549  10.406  37.707  0.00  0.00    +0.000 A 
ATOM      6  C   UNL     1     -18.396  10.046  37.009  0.00  0.00    +0.000 A 
ENDROOT
BRANCH   4   7
ATOM      7  C   UNL     1     -20.750  10.790  39.854  0.00  0.00    +0.000 C 
ATOM      8  O   UNL     1     -20.872  10.604  41.062  0.00  0.00    +0.000 OA
ENDBRANCH   4   7
TORSDOF 1
ENDMDL
MODEL 8
REMARK VINA RESULT:      -0.6      5.768      6.255
REMARK  Name = benzaldehyde
REMARK  1 active torsions:
REMARK  status: ('A' for Active; 'I' for Inactive)
REMARK    1  A    between atoms: C_4  and  C_7
REMARK                            x       y       z     vdW  Elec       q    Type
REMARK                         _______ _______ _______ _____ _____    ______ ____
ROOT
ATOM      1  C   UNL     1     -19.798   6.838  33.587  0.00  0.00    +0.000 A 
ATOM      2  C   UNL     1     -19.049   6.822  34.766  0.00  0.00    +0.000 A 
ATOM      3  C   UNL     1     -19.325   7.738  35.783  0.00  0.00    +0.000 A 
ATOM      4  C   UNL     1     -20.304   8.715  35.582  0.00  0.00    +0.000 A 
ATOM      5  C   UNL     1     -21.058   8.729  34.405  0.00  0.00    +0.000 A 
ATOM      6  C   UNL     1     -20.809   7.783  33.411  0.00  0.00    +0.000 A 
ENDROOT
BRANCH   4   7
ATOM      7  C   UNL     1     -20.494   9.771  36.596  0.00  0.00    +0.000 C 
ATOM      8  O   UNL     1     -21.026   9.547  37.680  0.00  0.00    +0.000 OA
ENDBRANCH   4   7
TORSDOF 1
ENDMDL
MODEL 9
REMARK VINA RESULT:      -0.5      3.144      3.954
REMARK  Name = benzaldehyde
REMARK  1 active torsions:
REMARK  status: ('A' for Active; 'I' for Inactive)
REMARK    1  A    between atoms: C_4  and  C_7
REMARK                            x       y       z     vdW  Elec       q    Type
REMARK                         _______ _______ _______ _____ _____    ______ ____
ROOT
ATOM      1  C   UNL     1     -16.342   9.224  35.650  0.00  0.00    +0.000 A 
ATOM      2  C   UNL     1     -16.277  10.400  36.399  0.00  0.00    +0.000 A 
ATOM      3  C   UNL     1     -17.284  10.700  37.319  0.00  0.00    +0.000 A 
ATOM      4  C   UNL     1     -18.390   9.853  37.430  0.00  0.00    +0.000 A 
ATOM      5  C   UNL     1     -18.454   8.672  36.684  0.00  0.00    +0.000 A 
ATOM      6  C   UNL     1     -17.423   8.355  35.801  0.00  0.00    +0.000 A 
ENDROOT
BRANCH   4   7
ATOM      7  C   UNL     1     -19.521  10.245  38.294  0.00  0.00    +0.000 C 
ATOM      8  O   UNL     1     -20.660   9.826  38.110  0.00  0.00    +0.000 OA
ENDBRANCH   4   7
TORSDOF 1
ENDMDL
