MODEL 1
REMARK VINA RESULT:      -0.9      0.000      0.000
REMARK  Name = naphthalene
REMARK  0 active torsions:
REMARK  status: ('A' for Active; 'I' for Inactive)
REMARK                            x       y       z     vdW  Elec       q    Type
REMARK                         _______ _______ _______ _____ _____    ______ ____
ROOT
ATOM      1  C   UNL     1     -19.288  10.225  40.898  0.00  0.00    +0.000 A 
ATOM      2  C   UNL     1     -20.586  10.674  40.673  0.00  0.00    +0.000 A 
ATOM      3  C   UNL     1     -21.060  10.812  39.368  0.00  0.00    +0.000 A 
ATOM      4  C   UNL     1     -20.234  10.526  38.271  0.00  0.00    +0.000 A 
ATOM      5  C   UNL     1     -18.919  10.060  38.496  0.00  0.00    +0.000 A 
ATOM      6  C   UNL     1     -18.463   9.908  39.817  0.00  0.00    +0.000 A 
ATOM      7  C   UNL     1     -18.096   9.770  37.395  0.00  0.00    +0.000 A 
ATOM      8  C   UNL     1     -18.560   9.953  36.091  0.00  0.00    +0.000 A 
ATOM      9  C   UNL     1     -19.853  10.419  35.871  0.00  0.00    +0.000 A 
ATOM     10  C   UNL     1     -20.687  10.701  36.954  0.00  0.00    +0.000 A 
ENDROOT
TORSDOF 0
ENDMDL
MODEL 2
REMARK VINA RESULT:      -0.9      0.745      3.469
REMARK  Name = naphthalene
REMARK  0 active torsions:
REMARK  status: ('A' for Active; 'I' for Inactive)
REMARK                            x       y       z     vdW  Elec       q    Type
REMARK                         _______ _______ _______ _____ _____    ______ ____
ROOT
ATOM      1  C   UNL     1     -17.235   9.605  36.871  0.00  0.00    +0.000 A 
ATOM      2  C   UNL     1     -18.368   9.999  36.165  0.00  0.00    +0.000 A 
ATOM      3  C   UNL     1     -19.518  10.389  36.853  0.00  0.00    +0.000 A 
ATOM      4  C   UNL     1     -19.556  10.367  38.255  0.00  0.00    +0.000 A 
ATOM      5  C   UNL     1     -18.402   9.978  38.975  0.00  0.00    +0.000 A 
ATOM      6  C   UNL     1     -17.247   9.607  38.267  0.00  0.00    +0.000 A 
ATOM      7  C   UNL     1     -18.444   9.962  40.379  0.00  0.00    +0.000 A 
ATOM      8  C   UNL     1     -19.610  10.311  41.062  0.00  0.00    +0.000 A 
ATOM      9  C   UNL     1     -20.747  10.686  40.353  0.00  0.00    +0.000 A 
ATOM     10  C   UNL     1     -20.720  10.718  38.958  0.00  0.00    +0.000 A 
ENDROOT
TORSDOF 0
ENDMDL
MODEL 3
REMARK VINA RESULT:      -0.6      1.758      3.259
REMARK  Name = naphthalene
REMARK  0 active torsions:
REMARK  status: ('A' for Active; 'I' for Inactive)
REMARK                            x       y       z     vdW  Elec       q    Type
REMARK                         _______ _______ _______ _____ _____    ______ ____
ROOT
ATOM      1  C   UNL     1     -17.491   9.387  39.202  0.00  0.00    +0.000 A 
ATOM      2  C   UNL     1     -17.914   9.165  40.510  0.00  0.00    +0.000 A 
ATOM      3  C   UNL     1     -18.924   9.955  41.059  0.00  0.00    +0.000 A 
ATOM      4  C   UNL     1     -19.507  10.992  40.317  0.00  0.00    +0.000 A 
ATOM      5  C   UNL     1     -19.087  11.214  38.985  0.00  0.00    +0.000 A 
ATOM      6  C   UNL     1     -18.081  10.396  38.440  0.00  0.00    +0.000 A 
ATOM      7  C   UNL     1     -19.676  12.251  38.243  0.00  0.00    +0.000 A 
ATOM      8  C   UNL     1     -20.655  13.068  38.812  0.00  0.00    +0.000 A 
ATOM      9  C   UNL     1     -21.062  12.854  40.126  0.00  0.00    +0.000 A 
ATOM     10  C   UNL     1     -20.495  11.821  40.873  0.00  0.00    +0.000 A 
ENDROOT
TORSDOF 0
ENDMDL
MODEL 4
REMARK VINA RESULT:      -0.6      1.862      3.955
REMARK  Name = naphthalene
REMARK  0 active torsions:
REMARK  status: ('A' for Active; 'I' for Inactive)
REMARK                            x       y       z     vdW  Elec       q    Type
REMARK                         _______ _______ _______ _____ _____    ______ ____
ROOT
ATOM      1  C   UNL     1     -18.027  11.937  36.730  0.00  0.00    +0.000 A 
ATOM      2  C   UNL     1     -18.562  10.652  36.694  0.00  0.00    +0.000 A 
ATOM      3  C   UNL     1     -19.468  10.246  37.674  0.00  0.00    +0.000 A 
ATOM      4  C   UNL     1     -19.833  11.112  38.716  0.00  0.00    +0.000 A 
ATOM      5  C   UNL     1     -19.300  12.421  38.749  0.00  0.00    +0.000 A 
ATOM      6  C   UNL     1     -18.403  12.821  37.743  0.00  0.00    +0.000 A 
ATOM      7  C   UNL     1     -19.671  13.286  39.792  0.00  0.00    +0.000 A 
ATOM      8  C   UNL     1     -20.543  12.861  40.795  0.00  0.00    +0.000 A 
ATOM      9  C   UNL     1     -21.061  11.569  40.766  0.00  0.00    +0.000 A 
ATOM     10  C   UNL     1     -20.711  10.701  39.731  0.00  0.00    +0.000 A 
ENDROOT
TORSDOF 0
ENDMDL
MODEL 5
REMARK VINA RESULT:      -0.6      2.405      4.214
REMARK  Name = naphthalene
REMARK  0 active torsions:
REMARK  status: ('A' for Active; 'I' for Inactive)
REMARK                            x       y       z     vdW  Elec       q    Type
REMARK                         _______ _______ _______ _____ _____    ______ ____
ROOT
ATOM      1  C   UNL     1     -17.730  13.654  37.820  0.00  0.00    +0.000 A 
ATOM      2  C   UNL     1     -16.796  13.319  38.796  0.00  0.00    +0.000 A 
ATOM      3  C   UNL     1     -17.151  12.456  39.834  0.00  0.00    +0.000 A 
ATOM      4  C   UNL     1     -18.450  11.936  39.921  0.00  0.00    +0.000 A 
ATOM      5  C   UNL     1     -19.398  12.265  38.925  0.00  0.00    +0.000 A 
ATOM      6  C   UNL     1     -19.019  13.120  37.876  0.00  0.00    +0.000 A 
ATOM      7  C   UNL     1     -20.697  11.738  39.014  0.00  0.00    +0.000 A 
ATOM      8  C   UNL     1     -21.060  10.911  40.078  0.00  0.00    +0.000 A 
ATOM      9  C   UNL     1     -20.128  10.594  41.062  0.00  0.00    +0.000 A 
ATOM     10  C   UNL     1     -18.830  11.100  40.983  0.00  0.00    +0.000 A 
ENDROOT
TORSDOF 0
ENDMDL
MODEL 6
REMARK VINA RESULT:      -0.6      3.190      4.598
REMARK  Name = naphthalene
REMARK  0 active torsions:
REMARK  status: ('A' for Active; 'I' for Inactive)
REMARK                            x       y       z     vdW  Elec       q    Type
REMARK                         _______ _______ _______ _____ _____    ______ ____
ROOT
ATOM      1  C   UNL     1     -19.152  15.569  39.389  0.00  0.00    +0.000 A 
ATOM      2  C   UNL     1     -18.401  14.861  38.455  0.00  0.00    +0.000 A 
ATOM      3  C   UNL     1     -18.514  13.473  38.377  0.00  0.00    +0.000 A 
ATOM      4  C   UNL     1     -19.362  12.773  39.248  0.00  0.00    +0.000 A 
ATOM      5  C   UNL     1     -20.135  13.490  40.190  0.00  0.00    +0.000 A 
ATOM      6  C   UNL     1     -20.024  14.890  40.243  0.00  0.00    +0.000 A 
ATOM      7  C   UNL     1     -20.986  12.785  41.058  0.00  0.00    +0.000 A 
ATOM      8  C   UNL     1     -21.062  11.393  41.006  0.00  0.00    +0.000 A 
ATOM      9  C   UNL     1     -20.295  10.687  40.084  0.00  0.00    +0.000 A 
ATOM     10  C   UNL     1     -19.453  11.372  39.207  0.00  0.00    +0.000 A 
ENDROOT
TORSDOF 0
ENDMDL
MODEL 7
REMARK VINA RESULT:      -0.5      5.099      6.219
REMARK  Name = naphthalene
REMARK  0 active torsions:
REMARK  status: ('A' for Active; 'I' for Inactive)
REMARK                            x       y       z     vdW  Elec       q    Type
REMARK                         _______ _______ _______ _____ _____    ______ ____
ROOT
ATOM      1  C   UNL     1     -15.374   7.324  37.042  0.00  0.00    +0.000 A 
ATOM      2  C   UNL     1     -15.193   7.951  38.271  0.00  0.00    +0.000 A 
ATOM      3  C   UNL     1     -15.781   7.418  39.419  0.00  0.00    +0.000 A 
ATOM      4  C   UNL     1     -16.576   6.264  39.347  0.00  0.00    +0.000 A 
ATOM      5  C   UNL     1     -16.752   5.619  38.102  0.00  0.00    +0.000 A 
ATOM      6  C   UNL     1     -16.137   6.158  36.958  0.00  0.00    +0.000 A 
ATOM      7  C   UNL     1     -17.545   4.461  38.036  0.00  0.00    +0.000 A 
ATOM      8  C   UNL     1     -18.168   3.957  39.179  0.00  0.00    +0.000 A 
ATOM      9  C   UNL     1     -18.000   4.598  40.403  0.00  0.00    +0.000 A 
ATOM     10  C   UNL     1     -17.206   5.742  40.489  0.00  0.00    +0.000 A 
ENDROOT
TORSDOF 0
ENDMDL
MODEL 8
REMARK VINA RESULT:      -0.5      2.821      4.140
REMARK  Name = naphthalene
REMARK  0 active torsions:
REMARK  status: ('A' for Active; 'I' for Inactive)
REMARK                            x       y       z     vdW  Elec       q    Type
REMARK                         _______ _______ _______ _____ _____    ______ ____
ROOT
ATOM      1  C   UNL     1     -18.148   6.068  36.367  0.00  0.00    +0.000 A 
ATOM      2  C   UNL     1     -19.354   5.657  35.806  0.00  0.00    +0.000 A 
ATOM      3  C   UNL     1     -20.313   6.603  35.444  0.00  0.00    +0.000 A 
ATOM      4  C   UNL     1     -20.088   7.971  35.660  0.00  0.00    +0.000 A 
ATOM      5  C   UNL     1     -18.859   8.392  36.219  0.00  0.00    +0.000 A 
ATOM      6  C   UNL     1     -17.896   7.427  36.561  0.00  0.00    +0.000 A 
ATOM      7  C   UNL     1     -18.636   9.763  36.430  0.00  0.00    +0.000 A 
ATOM      8  C   UNL     1     -19.616  10.703  36.108  0.00  0.00    +0.000 A 
ATOM      9  C   UNL     1     -20.828  10.287  35.565  0.00  0.00    +0.000 A 
ATOM     10  C   UNL     1     -21.062   8.930  35.339  0.00  0.00    +0.000 A 
ENDROOT
TORSDOF 0
ENDMDL
MODEL 9
REMARK VINA RESULT:      -0.5      2.402      3.748
REMARK  Name = naphthalene
REMARK  0 active torsions:
REMARK  status: ('A' for Active; 'I' for Inactive)
REMARK                            x       y       z     vdW  Elec       q    Type
REMARK                         _______ _______ _______ _____ _____    ______ ____
ROOT
ATOM      1  C   UNL     1     -16.832   6.529  39.083  0.00  0.00    +0.000 A 
ATOM      2  C   UNL     1     -17.172   5.916  37.880  0.00  0.00    +0.000 A 
ATOM      3  C   UNL     1     -17.642   6.684  36.815  0.00  0.00    +0.000 A 
ATOM      4  C   UNL     1     -17.799   8.072  36.946  0.00  0.00    +0.000 A 
ATOM      5  C   UNL     1     -17.443   8.699  38.162  0.00  0.00    +0.000 A 
ATOM      6  C   UNL     1     -16.953   7.912  39.220  0.00  0.00    +0.000 A 
ATOM      7  C   UNL     1     -17.598  10.089  38.288  0.00  0.00    +0.000 A 
ATOM      8  C   UNL     1     -18.110  10.848  37.234  0.00  0.00    +0.000 A 
ATOM      9  C   UNL     1     -18.467  10.229  36.040  0.00  0.00    +0.000 A 
ATOM     10  C   UNL     1     -18.310   8.850  35.894  0.00  0.00    +0.000 A 
ENDROOT
TORSDOF 0
ENDMDL
