MODEL 1
REMARK VINA RESULT:      -1.0      0.000      0.000
REMARK  Name = methylxanthine
REMARK  1 active torsions:
REMARK  status: ('A' for Active; 'I' for Inactive)
REMARK    1  A    between atoms: C_1  and  N_2
REMARK                            x       y       z     vdW  Elec       q    Type
REMARK                         _______ _______ _______ _____ _____    ______ ____
ROOT
ATOM      1  C   UNL     1     -15.480   7.493  37.786  0.00  0.00    +0.000 C 
ATOM      2  N   UNL     1     -16.380   7.735  38.883  0.00  0.00    +0.000 N 
ATOM      3  C   UNL     1     -16.884   6.806  39.758  0.00  0.00    +0.000 A 
ATOM      4  N   UNL     1     -17.687   7.356  40.653  0.00  0.00    +0.000 NA
ATOM      5  C   UNL     1     -17.686   8.673  40.330  0.00  0.00    +0.000 A 
ATOM      6  C   UNL     1     -16.896   8.941  39.251  0.00  0.00    +0.000 A 
ATOM      7  C   UNL     1     -16.733  10.251  38.724  0.00  0.00    +0.000 A 
ATOM      8  O   UNL     1     -16.031  10.536  37.760  0.00  0.00    +0.000 OA
ATOM      9  N   UNL     1     -17.460  11.194  39.419  0.00  0.00    +0.000 N 
ATOM     10  C   UNL     1     -18.267  10.966  40.516  0.00  0.00    +0.000 A 
ATOM     11  O   UNL     1     -18.864  11.891  41.062  0.00  0.00    +0.000 OA
ATOM     12  N   UNL     1     -18.367   9.671  40.960  0.00  0.00    +0.000 N 
ATOM     13  H   UNL     1     -17.392  12.146  39.098  0.00  0.00    +0.000 HD
ATOM     14  H   UNL     1     -18.945   9.454  41.758  0.00  0.00    +0.000 HD
ENDROOT
TORSDOF 0
ENDMDL
MODEL 2
REMARK VINA RESULT:      -0.9      2.380      3.718
REMARK  Name = methylxanthine
REMARK  1 active torsions:
REMARK  status: ('A' for Active; 'I' for Inactive)
REMARK    1  A    between atoms: C_1  and  N_2
REMARK                            x       y       z     vdW  Elec       q    Type
REMARK                         _______ _______ _______ _____ _____    ______ ____
ROOT
ATOM      1  C   UNL     1     -20.964  11.022  37.477  0.00  0.00    +0.000 C 
ATOM      2  N   UNL     1     -20.432  10.737  38.785  0.00  0.00    +0.000 N 
ATOM      3  C   UNL     1     -21.057  10.934  39.990  0.00  0.00    +0.000 A 
ATOM      4  N   UNL     1     -20.293  10.569  41.006  0.00  0.00    +0.000 NA
ATOM      5  C   UNL     1     -19.153  10.130  40.419  0.00  0.00    +0.000 A 
ATOM      6  C   UNL     1     -19.203  10.218  39.058  0.00  0.00    +0.000 A 
ATOM      7  C   UNL     1     -18.127   9.816  38.222  0.00  0.00    +0.000 A 
ATOM      8  O   UNL     1     -18.133   9.875  36.997  0.00  0.00    +0.000 OA
ATOM      9  N   UNL     1     -17.049   9.342  38.938  0.00  0.00    +0.000 N 
ATOM     10  C   UNL     1     -16.958   9.232  40.312  0.00  0.00    +0.000 A 
ATOM     11  O   UNL     1     -15.945   8.784  40.843  0.00  0.00    +0.000 OA
ATOM     12  N   UNL     1     -18.045   9.642  41.045  0.00  0.00    +0.000 N 
ATOM     13  H   UNL     1     -16.249   9.039  38.407  0.00  0.00    +0.000 HD
ATOM     14  H   UNL     1     -18.026   9.582  42.052  0.00  0.00    +0.000 HD
ENDROOT
TORSDOF 0
ENDMDL
MODEL 3
REMARK VINA RESULT:      -0.9      1.855      2.294
REMARK  Name = methylxanthine
REMARK  1 active torsions:
REMARK  status: ('A' for Active; 'I' for Inactive)
REMARK    1  A    between atoms: C_1  and  N_2
REMARK                            x       y       z     vdW  Elec       q    Type
REMARK                         _______ _______ _______ _____ _____    ______ ____
ROOT
ATOM      1  C   UNL     1     -15.599   4.691  38.414  0.00  0.00    +0.000 C 
ATOM      2  N   UNL     1     -16.358   5.534  39.302  0.00  0.00    +0.000 N 
ATOM      3  C   UNL     1     -17.287   5.133  40.228  0.00  0.00    +0.000 A 
ATOM      4  N   UNL     1     -17.805   6.159  40.882  0.00  0.00    +0.000 NA
ATOM      5  C   UNL     1     -17.181   7.238  40.349  0.00  0.00    +0.000 A 
ATOM      6  C   UNL     1     -16.287   6.892  39.378  0.00  0.00    +0.000 A 
ATOM      7  C   UNL     1     -15.509   7.851  38.674  0.00  0.00    +0.000 A 
ATOM      8  O   UNL     1     -14.693   7.584  37.798  0.00  0.00    +0.000 OA
ATOM      9  N   UNL     1     -15.768   9.143  39.080  0.00  0.00    +0.000 N 
ATOM     10  C   UNL     1     -16.659   9.535  40.059  0.00  0.00    +0.000 A 
ATOM     11  O   UNL     1     -16.800  10.722  40.345  0.00  0.00    +0.000 OA
ATOM     12  N   UNL     1     -17.369   8.543  40.691  0.00  0.00    +0.000 N 
ATOM     13  H   UNL     1     -15.251   9.875  38.621  0.00  0.00    +0.000 HD
ATOM     14  H   UNL     1     -18.033   8.780  41.413  0.00  0.00    +0.000 HD
ENDROOT
TORSDOF 0
ENDMDL
MODEL 4
REMARK VINA RESULT:      -0.9      1.701      2.611
REMARK  Name = methylxanthine
REMARK  1 active torsions:
REMARK  status: ('A' for Active; 'I' for Inactive)
REMARK    1  A    between atoms: C_1  and  N_2
REMARK                            x       y       z     vdW  Elec       q    Type
REMARK                         _______ _______ _______ _____ _____    ______ ____
ROOT
ATOM      1  C   UNL     1     -16.887   6.739  38.365  0.00  0.00    +0.000 C 
ATOM      2  N   UNL     1     -16.944   8.168  38.192  0.00  0.00    +0.000 N 
ATOM      3  C   UNL     1     -16.590   8.879  37.073  0.00  0.00    +0.000 A 
ATOM      4  N   UNL     1     -16.761  10.179  37.241  0.00  0.00    +0.000 NA
ATOM      5  C   UNL     1     -17.238  10.288  38.506  0.00  0.00    +0.000 A 
ATOM      6  C   UNL     1     -17.363   9.075  39.118  0.00  0.00    +0.000 A 
ATOM      7  C   UNL     1     -17.843   8.932  40.448  0.00  0.00    +0.000 A 
ATOM      8  O   UNL     1     -17.975   7.863  41.034  0.00  0.00    +0.000 OA
ATOM      9  N   UNL     1     -18.155  10.142  41.030  0.00  0.00    +0.000 N 
ATOM     10  C   UNL     1     -18.048  11.388  40.446  0.00  0.00    +0.000 A 
ATOM     11  O   UNL     1     -18.365  12.403  41.062  0.00  0.00    +0.000 OA
ATOM     12  N   UNL     1     -17.575  11.436  39.157  0.00  0.00    +0.000 N 
ATOM     13  H   UNL     1     -18.502  10.115  41.975  0.00  0.00    +0.000 HD
ATOM     14  H   UNL     1     -17.478  12.324  38.688  0.00  0.00    +0.000 HD
ENDROOT
TORSDOF 0
ENDMDL
MODEL 5
REMARK VINA RESULT:      -0.9      2.504      4.732
REMARK  Name = methylxanthine
REMARK  1 active torsions:
REMARK  status: ('A' for Active; 'I' for Inactive)
REMARK    1  A    between atoms: C_1  and  N_2
REMARK                            x       y       z     vdW  Elec       q    Type
REMARK                         _______ _______ _______ _____ _____    ______ ____
ROOT
ATOM      1  C   UNL     1     -20.559  10.620  41.060  0.00  0.00    +0.000 C 
ATOM      2  N   UNL     1     -20.130  11.207  39.817  0.00  0.00    +0.000 N 
ATOM      3  C   UNL     1     -20.647  12.323  39.209  0.00  0.00    +0.000 A 
ATOM      4  N   UNL     1     -20.027  12.597  38.074  0.00  0.00    +0.000 NA
ATOM      5  C   UNL     1     -19.090  11.623  37.967  0.00  0.00    +0.000 A 
ATOM      6  C   UNL     1     -19.125  10.753  39.018  0.00  0.00    +0.000 A 
ATOM      7  C   UNL     1     -18.239   9.648  39.130  0.00  0.00    +0.000 A 
ATOM      8  O   UNL     1     -18.232   8.847  40.058  0.00  0.00    +0.000 OA
ATOM      9  N   UNL     1     -17.364   9.562  38.067  0.00  0.00    +0.000 N 
ATOM     10  C   UNL     1     -17.293  10.421  36.989  0.00  0.00    +0.000 A 
ATOM     11  O   UNL     1     -16.461  10.249  36.100  0.00  0.00    +0.000 OA
ATOM     12  N   UNL     1     -18.186  11.464  36.960  0.00  0.00    +0.000 N 
ATOM     13  H   UNL     1     -16.706   8.800  38.082  0.00  0.00    +0.000 HD
ATOM     14  H   UNL     1     -18.174  12.117  36.191  0.00  0.00    +0.000 HD
ENDROOT
TORSDOF 0
ENDMDL
MODEL 6
REMARK VINA RESULT:      -0.9      2.859      3.355
REMARK  Name = methylxanthine
REMARK  1 active torsions:
REMARK  status: ('A' for Active; 'I' for Inactive)
REMARK    1  A    between atoms: C_1  and  N_2
REMARK                            x       y       z     vdW  Elec       q    Type
REMARK                         _______ _______ _______ _____ _____    ______ ____
ROOT
ATOM      1  C   UNL     1     -18.313   8.733  36.788  0.00  0.00    +0.000 C 
ATOM      2  N   UNL     1     -18.026   9.765  37.750  0.00  0.00    +0.000 N 
ATOM      3  C   UNL     1     -16.789  10.234  38.114  0.00  0.00    +0.000 A 
ATOM      4  N   UNL     1     -16.872  11.187  39.026  0.00  0.00    +0.000 NA
ATOM      5  C   UNL     1     -18.204  11.321  39.242  0.00  0.00    +0.000 A 
ATOM      6  C   UNL     1     -18.941  10.465  38.476  0.00  0.00    +0.000 A 
ATOM      7  C   UNL     1     -20.361  10.419  38.526  0.00  0.00    +0.000 A 
ATOM      8  O   UNL     1     -21.061   9.670  37.853  0.00  0.00    +0.000 OA
ATOM      9  N   UNL     1     -20.888  11.321  39.425  0.00  0.00    +0.000 N 
ATOM     10  C   UNL     1     -20.180  12.205  40.214  0.00  0.00    +0.000 A 
ATOM     11  O   UNL     1     -20.761  12.974  40.978  0.00  0.00    +0.000 OA
ATOM     12  N   UNL     1     -18.811  12.184  40.103  0.00  0.00    +0.000 N 
ATOM     13  H   UNL     1     -21.891  11.342  39.512  0.00  0.00    +0.000 HD
ATOM     14  H   UNL     1     -18.250  12.811  40.660  0.00  0.00    +0.000 HD
ENDROOT
TORSDOF 0
ENDMDL
MODEL 7
REMARK VINA RESULT:      -0.8      2.215      3.482
REMARK  Name = methylxanthine
REMARK  1 active torsions:
REMARK  status: ('A' for Active; 'I' for Inactive)
REMARK    1  A    between atoms: C_1  and  N_2
REMARK                            x       y       z     vdW  Elec       q    Type
REMARK                         _______ _______ _______ _____ _____    ______ ____
ROOT
ATOM      1  C   UNL     1     -14.255  11.318  37.410  0.00  0.00    +0.000 C 
ATOM      2  N   UNL     1     -15.547  11.045  37.984  0.00  0.00    +0.000 N 
ATOM      3  C   UNL     1     -16.668  11.831  37.905  0.00  0.00    +0.000 A 
ATOM      4  N   UNL     1     -17.693  11.293  38.543  0.00  0.00    +0.000 NA
ATOM      5  C   UNL     1     -17.199  10.131  39.038  0.00  0.00    +0.000 A 
ATOM      6  C   UNL     1     -15.887   9.947  38.715  0.00  0.00    +0.000 A 
ATOM      7  C   UNL     1     -15.149   8.802  39.120  0.00  0.00    +0.000 A 
ATOM      8  O   UNL     1     -13.971   8.595  38.848  0.00  0.00    +0.000 OA
ATOM      9  N   UNL     1     -15.905   7.924  39.868  0.00  0.00    +0.000 N 
ATOM     10  C   UNL     1     -17.233   8.070  40.214  0.00  0.00    +0.000 A 
ATOM     11  O   UNL     1     -17.809   7.213  40.880  0.00  0.00    +0.000 OA
ATOM     12  N   UNL     1     -17.871   9.206  39.779  0.00  0.00    +0.000 N 
ATOM     13  H   UNL     1     -15.444   7.088  40.190  0.00  0.00    +0.000 HD
ATOM     14  H   UNL     1     -18.842   9.358  40.008  0.00  0.00    +0.000 HD
ENDROOT
TORSDOF 0
ENDMDL
MODEL 8
REMARK VINA RESULT:      -0.8      2.432      3.789
REMARK  Name = methylxanthine
REMARK  1 active torsions:
REMARK  status: ('A' for Active; 'I' for Inactive)
REMARK    1  A    between atoms: C_1  and  N_2
REMARK                            x       y       z     vdW  Elec       q    Type
REMARK                         _______ _______ _______ _____ _____    ______ ____
ROOT
ATOM      1  C   UNL     1     -14.248  10.567  38.588  0.00  0.00    +0.000 C 
ATOM      2  N   UNL     1     -14.565   9.174  38.407  0.00  0.00    +0.000 N 
ATOM      3  C   UNL     1     -13.979   8.302  37.524  0.00  0.00    +0.000 A 
ATOM      4  N   UNL     1     -14.502   7.090  37.608  0.00  0.00    +0.000 NA
ATOM      5  C   UNL     1     -15.446   7.206  38.575  0.00  0.00    +0.000 A 
ATOM      6  C   UNL     1     -15.511   8.468  39.087  0.00  0.00    +0.000 A 
ATOM      7  C   UNL     1     -16.423   8.835  40.113  0.00  0.00    +0.000 A 
ATOM      8  O   UNL     1     -16.512   9.955  40.604  0.00  0.00    +0.000 OA
ATOM      9  N   UNL     1     -17.218   7.782  40.515  0.00  0.00    +0.000 N 
ATOM     10  C   UNL     1     -17.182   6.491  40.026  0.00  0.00    +0.000 A 
ATOM     11  O   UNL     1     -17.937   5.628  40.469  0.00  0.00    +0.000 OA
ATOM     12  N   UNL     1     -16.269   6.223  39.036  0.00  0.00    +0.000 N 
ATOM     13  H   UNL     1     -17.890   7.971  41.241  0.00  0.00    +0.000 HD
ATOM     14  H   UNL     1     -16.206   5.294  38.646  0.00  0.00    +0.000 HD
ENDROOT
TORSDOF 0
ENDMDL
MODEL 9
REMARK VINA RESULT:      -0.8      1.973      3.614
REMARK  Name = methylxanthine
REMARK  1 active torsions:
REMARK  status: ('A' for Active; 'I' for Inactive)
REMARK    1  A    between atoms: C_1  and  N_2
REMARK                            x       y       z     vdW  Elec       q    Type
REMARK                         _______ _______ _______ _____ _____    ______ ____
ROOT
ATOM      1  C   UNL     1     -16.473  13.202  37.839  0.00  0.00    +0.000 C 
ATOM      2  N   UNL     1     -16.204  11.798  38.018  0.00  0.00    +0.000 N 
ATOM      3  C   UNL     1     -15.282  11.042  37.340  0.00  0.00    +0.000 A 
ATOM      4  N   UNL     1     -15.285   9.783  37.743  0.00  0.00    +0.000 NA
ATOM      5  C   UNL     1     -16.240   9.748  38.705  0.00  0.00    +0.000 A 
ATOM      6  C   UNL     1     -16.823  10.966  38.900  0.00  0.00    +0.000 A 
ATOM      7  C   UNL     1     -17.851  11.181  39.858  0.00  0.00    +0.000 A 
ATOM      8  O   UNL     1     -18.399  12.258  40.068  0.00  0.00    +0.000 OA
ATOM      9  N   UNL     1     -18.181  10.032  40.546  0.00  0.00    +0.000 N 
ATOM     10  C   UNL     1     -17.614   8.784  40.383  0.00  0.00    +0.000 A 
ATOM     11  O   UNL     1     -17.984   7.829  41.062  0.00  0.00    +0.000 OA
ATOM     12  N   UNL     1     -16.626   8.665  39.436  0.00  0.00    +0.000 N 
ATOM     13  H   UNL     1     -18.904  10.112  41.242  0.00  0.00    +0.000 HD
ATOM     14  H   UNL     1     -16.182   7.773  39.279  0.00  0.00    +0.000 HD
ENDROOT
TORSDOF 0
ENDMDL
