MODEL 1
REMARK VINA RESULT:      -1.0      0.000      0.000
REMARK  Name = ibuprofen
REMARK  5 active torsions:
REMARK  status: ('A' for Active; 'I' for Inactive)
REMARK    1  A    between atoms: C_1  and  C_2
REMARK    2  A    between atoms: C_2  and  C_3
REMARK    3  A    between atoms: C_2  and  O_4
REMARK    4  A    between atoms: O_4  and  C_5
REMARK    5  A    between atoms: C_5  and  C_7
REMARK                            x       y       z     vdW  Elec       q    Type
REMARK                         _______ _______ _______ _____ _____    ______ ____
ROOT
ATOM      1  O   UNL     1     -17.761   8.205  39.470  0.00  0.00    +0.000 OA
ENDROOT
BRANCH   1   3
ATOM      2  C   UNL     1     -17.850  10.443  38.530  0.00  0.00    +0.000 C 
ATOM      3  C   UNL     1     -17.756   9.612  39.813  0.00  0.00    +0.000 C 
ATOM      4  C   UNL     1     -18.948   9.965  40.703  0.00  0.00    +0.000 C 
ENDBRANCH   1   3
BRANCH   1   5
ATOM      5  C   UNL     1     -17.226   7.359  40.395  0.00  0.00    +0.000 C 
ATOM      6  O   UNL     1     -17.804   6.401  40.900  0.00  0.00    +0.000 OA
ATOM      7  C   UNL     1     -15.811   7.709  40.746  0.00  0.00    +0.000 C 
ENDBRANCH   1   5
TORSDOF 2
ENDMDL
MODEL 2
REMARK VINA RESULT:      -0.9      2.095      2.884
REMARK  Name = ibuprofen
REMARK  5 active torsions:
REMARK  status: ('A' for Active; 'I' for Inactive)
REMARK    1  A    between atoms: C_1  and  C_2
REMARK    2  A    between atoms: C_2  and  C_3
REMARK    3  A    between atoms: C_2  and  O_4
REMARK    4  A    between atoms: O_4  and  C_5
REMARK    5  A    between atoms: C_5  and  C_7
REMARK                            x       y       z     vdW  Elec       q    Type
REMARK                         _______ _______ _______ _____ _____    ______ ____
ROOT
ATOM      1  O   UNL     1     -17.577   7.748  38.837  0.00  0.00    +0.000 OA
ENDROOT
BRANCH   1   3
ATOM      2  C   UNL     1     -17.538   5.942  37.213  0.00  0.00    +0.000 C 
ATOM      3  C   UNL     1     -16.936   7.290  37.621  0.00  0.00    +0.000 C 
ATOM      4  C   UNL     1     -17.156   8.280  36.478  0.00  0.00    +0.000 C 
ENDBRANCH   1   3
BRANCH   1   5
ATOM      5  C   UNL     1     -17.103   7.220  40.002  0.00  0.00    +0.000 C 
ATOM      6  O   UNL     1     -17.779   6.636  40.843  0.00  0.00    +0.000 OA
ATOM      7  C   UNL     1     -15.625   7.414  40.164  0.00  0.00    +0.000 C 
ENDBRANCH   1   5
TORSDOF 2
ENDMDL
MODEL 3
REMARK VINA RESULT:      -0.8      2.042      2.577
REMARK  Name = ibuprofen
REMARK  5 active torsions:
REMARK  status: ('A' for Active; 'I' for Inactive)
REMARK    1  A    between atoms: C_1  and  C_2
REMARK    2  A    between atoms: C_2  and  C_3
REMARK    3  A    between atoms: C_2  and  O_4
REMARK    4  A    between atoms: O_4  and  C_5
REMARK    5  A    between atoms: C_5  and  C_7
REMARK                            x       y       z     vdW  Elec       q    Type
REMARK                         _______ _______ _______ _____ _____    ______ ____
ROOT
ATOM      1  O   UNL     1     -17.744   8.520  38.998  0.00  0.00    +0.000 OA
ENDROOT
BRANCH   1   3
ATOM      2  C   UNL     1     -17.905   7.804  36.683  0.00  0.00    +0.000 C 
ATOM      3  C   UNL     1     -17.155   7.642  38.009  0.00  0.00    +0.000 C 
ATOM      4  C   UNL     1     -15.685   7.985  37.774  0.00  0.00    +0.000 C 
ENDBRANCH   1   3
BRANCH   1   5
ATOM      5  C   UNL     1     -17.506   8.202  40.303  0.00  0.00    +0.000 C 
ATOM      6  O   UNL     1     -17.764   7.124  40.829  0.00  0.00    +0.000 OA
ATOM      7  C   UNL     1     -16.864   9.324  41.062  0.00  0.00    +0.000 C 
ENDBRANCH   1   5
TORSDOF 2
ENDMDL
MODEL 4
REMARK VINA RESULT:      -0.8      1.722      2.413
REMARK  Name = ibuprofen
REMARK  5 active torsions:
REMARK  status: ('A' for Active; 'I' for Inactive)
REMARK    1  A    between atoms: C_1  and  C_2
REMARK    2  A    between atoms: C_2  and  C_3
REMARK    3  A    between atoms: C_2  and  O_4
REMARK    4  A    between atoms: O_4  and  C_5
REMARK    5  A    between atoms: C_5  and  C_7
REMARK                            x       y       z     vdW  Elec       q    Type
REMARK                         _______ _______ _______ _____ _____    ______ ____
ROOT
ATOM      1  O   UNL     1     -18.315  10.347  39.791  0.00  0.00    +0.000 OA
ENDROOT
BRANCH   1   3
ATOM      2  C   UNL     1     -19.811  11.776  41.062  0.00  0.00    +0.000 C 
ATOM      3  C   UNL     1     -19.685  10.493  40.237  0.00  0.00    +0.000 C 
ATOM      4  C   UNL     1     -20.642  10.590  39.049  0.00  0.00    +0.000 C 
ENDBRANCH   1   3
BRANCH   1   5
ATOM      5  C   UNL     1     -17.783   9.094  39.881  0.00  0.00    +0.000 C 
ATOM      6  O   UNL     1     -18.079   8.257  40.728  0.00  0.00    +0.000 OA
ATOM      7  C   UNL     1     -16.776   8.816  38.805  0.00  0.00    +0.000 C 
ENDBRANCH   1   5
TORSDOF 2
ENDMDL
MODEL 5
REMARK VINA RESULT:      -0.8      3.028      3.653
REMARK  Name = ibuprofen
REMARK  5 active torsions:
REMARK  status: ('A' for Active; 'I' for Inactive)
REMARK    1  A    between atoms: C_1  and  C_2
REMARK    2  A    between atoms: C_2  and  C_3
REMARK    3  A    between atoms: C_2  and  O_4
REMARK    4  A    between atoms: O_4  and  C_5
REMARK    5  A    between atoms: C_5  and  C_7
REMARK                            x       y       z     vdW  Elec       q    Type
REMARK                         _______ _______ _______ _____ _____    ______ ____
ROOT
ATOM      1  O   UNL     1     -19.175   9.647  39.308  0.00  0.00    +0.000 OA
ENDROOT
BRANCH   1   3
ATOM      2  C   UNL     1     -18.344   9.148  37.081  0.00  0.00    +0.000 C 
ATOM      3  C   UNL     1     -19.201  10.091  37.930  0.00  0.00    +0.000 C 
ATOM      4  C   UNL     1     -20.625  10.076  37.374  0.00  0.00    +0.000 C 
ENDBRANCH   1   3
BRANCH   1   5
ATOM      5  C   UNL     1     -19.607  10.547  40.238  0.00  0.00    +0.000 C 
ATOM      6  O   UNL     1     -20.495  10.346  41.062  0.00  0.00    +0.000 OA
ATOM      7  C   UNL     1     -18.866  11.848  40.169  0.00  0.00    +0.000 C 
ENDBRANCH   1   5
TORSDOF 2
ENDMDL
MODEL 6
REMARK VINA RESULT:      -0.7      3.120      3.800
REMARK  Name = ibuprofen
REMARK  5 active torsions:
REMARK  status: ('A' for Active; 'I' for Inactive)
REMARK    1  A    between atoms: C_1  and  C_2
REMARK    2  A    between atoms: C_2  and  C_3
REMARK    3  A    between atoms: C_2  and  O_4
REMARK    4  A    between atoms: O_4  and  C_5
REMARK    5  A    between atoms: C_5  and  C_7
REMARK                            x       y       z     vdW  Elec       q    Type
REMARK                         _______ _______ _______ _____ _____    ______ ____
ROOT
ATOM      1  O   UNL     1     -18.998   9.480  38.346  0.00  0.00    +0.000 OA
ENDROOT
BRANCH   1   3
ATOM      2  C   UNL     1     -20.950  10.684  39.147  0.00  0.00    +0.000 C 
ATOM      3  C   UNL     1     -19.458  10.772  38.814  0.00  0.00    +0.000 C 
ATOM      4  C   UNL     1     -18.708  11.198  40.075  0.00  0.00    +0.000 C 
ENDBRANCH   1   3
BRANCH   1   5
ATOM      5  C   UNL     1     -19.062   9.271  36.999  0.00  0.00    +0.000 C 
ATOM      6  O   UNL     1     -19.618   8.323  36.454  0.00  0.00    +0.000 OA
ATOM      7  C   UNL     1     -18.377  10.350  36.215  0.00  0.00    +0.000 C 
ENDBRANCH   1   5
TORSDOF 2
ENDMDL
MODEL 7
REMARK VINA RESULT:      -0.7      2.635      3.816
REMARK  Name = ibuprofen
REMARK  5 active torsions:
REMARK  status: ('A' for Active; 'I' for Inactive)
REMARK    1  A    between atoms: C_1  and  C_2
REMARK    2  A    between atoms: C_2  and  C_3
REMARK    3  A    between atoms: C_2  and  O_4
REMARK    4  A    between atoms: O_4  and  C_5
REMARK    5  A    between atoms: C_5  and  C_7
REMARK                            x       y       z     vdW  Elec       q    Type
REMARK                         _______ _______ _______ _____ _____    ______ ____
ROOT
ATOM      1  O   UNL     1     -18.775   9.571  38.523  0.00  0.00    +0.000 OA
ENDROOT
BRANCH   1   3
ATOM      2  C   UNL     1     -18.768   9.829  40.938  0.00  0.00    +0.000 C 
ATOM      3  C   UNL     1     -19.413  10.268  39.621  0.00  0.00    +0.000 C 
ATOM      4  C   UNL     1     -19.244  11.781  39.484  0.00  0.00    +0.000 C 
ENDBRANCH   1   3
BRANCH   1   5
ATOM      5  C   UNL     1     -19.446   9.580  37.335  0.00  0.00    +0.000 C 
ATOM      6  O   UNL     1     -20.637   9.324  37.191  0.00  0.00    +0.000 OA
ATOM      7  C   UNL     1     -18.567   9.953  36.179  0.00  0.00    +0.000 C 
ENDBRANCH   1   5
TORSDOF 2
ENDMDL
MODEL 8
REMARK VINA RESULT:      -0.7      4.072      4.587
REMARK  Name = ibuprofen
REMARK  5 active torsions:
REMARK  status: ('A' for Active; 'I' for Inactive)
REMARK    1  A    between atoms: C_1  and  C_2
REMARK    2  A    between atoms: C_2  and  C_3
REMARK    3  A    between atoms: C_2  and  O_4
REMARK    4  A    between atoms: O_4  and  C_5
REMARK    5  A    between atoms: C_5  and  C_7
REMARK                            x       y       z     vdW  Elec       q    Type
REMARK                         _______ _______ _______ _____ _____    ______ ____
ROOT
ATOM      1  O   UNL     1     -19.543  10.622  38.682  0.00  0.00    +0.000 OA
ENDROOT
BRANCH   1   3
ATOM      2  C   UNL     1     -20.970  10.866  40.633  0.00  0.00    +0.000 C 
ATOM      3  C   UNL     1     -20.154  11.597  39.562  0.00  0.00    +0.000 C 
ATOM      4  C   UNL     1     -19.094  12.446  40.262  0.00  0.00    +0.000 C 
ENDBRANCH   1   3
BRANCH   1   5
ATOM      5  C   UNL     1     -20.248  10.300  37.560  0.00  0.00    +0.000 C 
ATOM      6  O   UNL     1     -20.726   9.197  37.314  0.00  0.00    +0.000 OA
ATOM      7  C   UNL     1     -20.405  11.461  36.624  0.00  0.00    +0.000 C 
ENDBRANCH   1   5
TORSDOF 2
ENDMDL
MODEL 9
REMARK VINA RESULT:      -0.7      3.525      4.676
REMARK  Name = ibuprofen
REMARK  5 active torsions:
REMARK  status: ('A' for Active; 'I' for Inactive)
REMARK    1  A    between atoms: C_1  and  C_2
REMARK    2  A    between atoms: C_2  and  C_3
REMARK    3  A    between atoms: C_2  and  O_4
REMARK    4  A    between atoms: O_4  and  C_5
REMARK    5  A    between atoms: C_5  and  C_7
REMARK                            x       y       z     vdW  Elec       q    Type
REMARK                         _______ _______ _______ _____ _____    ______ ____
ROOT
ATOM      1  O   UNL     1     -18.810   8.941  37.528  0.00  0.00    +0.000 OA
ENDROOT
BRANCH   1   3
ATOM      2  C   UNL     1     -16.989   7.947  36.265  0.00  0.00    +0.000 C 
ATOM      3  C   UNL     1     -18.408   8.520  36.202  0.00  0.00    +0.000 C 
ATOM      4  C   UNL     1     -19.341   7.436  35.662  0.00  0.00    +0.000 C 
ENDBRANCH   1   3
BRANCH   1   5
ATOM      5  C   UNL     1     -19.710   9.964  37.587  0.00  0.00    +0.000 C 
ATOM      6  O   UNL     1     -20.761   9.949  38.221  0.00  0.00    +0.000 OA
ATOM      7  C   UNL     1     -19.279  11.158  36.789  0.00  0.00    +0.000 C 
ENDBRANCH   1   5
TORSDOF 2
ENDMDL
