MODEL 1
REMARK VINA RESULT:      -1.0      0.000      0.000
REMARK  Name = ethyl_benzoate
REMARK  4 active torsions:
REMARK  status: ('A' for Active; 'I' for Inactive)
REMARK    1  A    between atoms: C_1  and  C_2
REMARK    2  A    between atoms: C_2  and  O_3
REMARK    3  A    between atoms: O_3  and  C_4
REMARK    4  A    between atoms: C_4  and  C_6
REMARK                            x       y       z     vdW  Elec       q    Type
REMARK                         _______ _______ _______ _____ _____    ______ ____
ROOT
ATOM      1  C   UNL     1     -17.643   8.781  40.000  0.00  0.00    +0.000 A 
ATOM      2  C   UNL     1     -18.510   9.577  40.764  0.00  0.00    +0.000 A 
ATOM      3  C   UNL     1     -19.288  10.565  40.156  0.00  0.00    +0.000 A 
ATOM      4  C   UNL     1     -19.161  10.807  38.789  0.00  0.00    +0.000 A 
ATOM      5  C   UNL     1     -18.287  10.033  38.025  0.00  0.00    +0.000 A 
ATOM      6  C   UNL     1     -17.532   9.014  38.625  0.00  0.00    +0.000 A 
ENDROOT
BRANCH   1   7
ATOM      7  C   UNL     1     -16.993   7.621  40.662  0.00  0.00    +0.000 C 
ATOM      8  O   UNL     1     -15.834   7.673  41.062  0.00  0.00    +0.000 OA
BRANCH   7   9
ATOM      9  O   UNL     1     -17.804   6.533  40.732  0.00  0.00    +0.000 OA
BRANCH   9  11
ATOM     10  C   UNL     1     -17.244   5.246  38.754  0.00  0.00    +0.000 C 
ATOM     11  C   UNL     1     -17.177   5.318  40.270  0.00  0.00    +0.000 C 
ENDBRANCH   9  11
ENDBRANCH   7   9
ENDBRANCH   1   7
TORSDOF 3
ENDMDL
MODEL 2
REMARK VINA RESULT:      -0.9      2.611      3.465
REMARK  Name = ethyl_benzoate
REMARK  4 active torsions:
REMARK  status: ('A' for Active; 'I' for Inactive)
REMARK    1  A    between atoms: C_1  and  C_2
REMARK    2  A    between atoms: C_2  and  O_3
REMARK    3  A    between atoms: O_3  and  C_4
REMARK    4  A    between atoms: C_4  and  C_6
REMARK                            x       y       z     vdW  Elec       q    Type
REMARK                         _______ _______ _______ _____ _____    ______ ____
ROOT
ATOM      1  C   UNL     1     -18.743   9.838  38.838  0.00  0.00    +0.000 A 
ATOM      2  C   UNL     1     -18.547   9.910  40.226  0.00  0.00    +0.000 A 
ATOM      3  C   UNL     1     -19.562  10.382  41.062  0.00  0.00    +0.000 A 
ATOM      4  C   UNL     1     -20.757  10.844  40.514  0.00  0.00    +0.000 A 
ATOM      5  C   UNL     1     -20.952  10.795  39.133  0.00  0.00    +0.000 A 
ATOM      6  C   UNL     1     -19.951  10.286  38.292  0.00  0.00    +0.000 A 
ENDROOT
BRANCH   1   7
ATOM      7  C   UNL     1     -17.713   9.147  38.021  0.00  0.00    +0.000 C 
ATOM      8  O   UNL     1     -17.777   7.945  37.785  0.00  0.00    +0.000 OA
BRANCH   7   9
ATOM      9  O   UNL     1     -16.718   9.979  37.617  0.00  0.00    +0.000 OA
BRANCH   9  11
ATOM     10  C   UNL     1     -14.941  10.378  39.219  0.00  0.00    +0.000 C 
ATOM     11  C   UNL     1     -15.405   9.550  38.033  0.00  0.00    +0.000 C 
ENDBRANCH   9  11
ENDBRANCH   7   9
ENDBRANCH   1   7
TORSDOF 3
ENDMDL
MODEL 3
REMARK VINA RESULT:      -0.9      2.671      3.981
REMARK  Name = ethyl_benzoate
REMARK  4 active torsions:
REMARK  status: ('A' for Active; 'I' for Inactive)
REMARK    1  A    between atoms: C_1  and  C_2
REMARK    2  A    between atoms: C_2  and  O_3
REMARK    3  A    between atoms: O_3  and  C_4
REMARK    4  A    between atoms: C_4  and  C_6
REMARK                            x       y       z     vdW  Elec       q    Type
REMARK                         _______ _______ _______ _____ _____    ______ ____
ROOT
ATOM      1  C   UNL     1     -17.711  10.936  40.292  0.00  0.00    +0.000 A 
ATOM      2  C   UNL     1     -16.325  10.847  40.494  0.00  0.00    +0.000 A 
ATOM      3  C   UNL     1     -15.595  11.965  40.907  0.00  0.00    +0.000 A 
ATOM      4  C   UNL     1     -16.233  13.194  41.062  0.00  0.00    +0.000 A 
ATOM      5  C   UNL     1     -17.608  13.295  40.845  0.00  0.00    +0.000 A 
ATOM      6  C   UNL     1     -18.351  12.168  40.466  0.00  0.00    +0.000 A 
ENDROOT
BRANCH   1   7
ATOM      7  C   UNL     1     -18.464   9.679  40.048  0.00  0.00    +0.000 C 
ATOM      8  O   UNL     1     -18.314   8.689  40.757  0.00  0.00    +0.000 OA
BRANCH   7   9
ATOM      9  O   UNL     1     -19.279   9.758  38.963  0.00  0.00    +0.000 OA
BRANCH   9  11
ATOM     10  C   UNL     1     -18.944  10.795  36.796  0.00  0.00    +0.000 C 
ATOM     11  C   UNL     1     -18.578   9.636  37.708  0.00  0.00    +0.000 C 
ENDBRANCH   9  11
ENDBRANCH   7   9
ENDBRANCH   1   7
TORSDOF 3
ENDMDL
MODEL 4
REMARK VINA RESULT:      -0.9      2.177      3.998
REMARK  Name = ethyl_benzoate
REMARK  4 active torsions:
REMARK  status: ('A' for Active; 'I' for Inactive)
REMARK    1  A    between atoms: C_1  and  C_2
REMARK    2  A    between atoms: C_2  and  O_3
REMARK    3  A    between atoms: O_3  and  C_4
REMARK    4  A    between atoms: C_4  and  C_6
REMARK                            x       y       z     vdW  Elec       q    Type
REMARK                         _______ _______ _______ _____ _____    ______ ____
ROOT
ATOM      1  C   UNL     1     -17.372   9.677  38.888  0.00  0.00    +0.000 A 
ATOM      2  C   UNL     1     -17.381  10.764  38.000  0.00  0.00    +0.000 A 
ATOM      3  C   UNL     1     -16.665  10.708  36.801  0.00  0.00    +0.000 A 
ATOM      4  C   UNL     1     -15.886   9.590  36.508  0.00  0.00    +0.000 A 
ATOM      5  C   UNL     1     -15.856   8.513  37.395  0.00  0.00    +0.000 A 
ATOM      6  C   UNL     1     -16.603   8.549  38.582  0.00  0.00    +0.000 A 
ENDROOT
BRANCH   1   7
ATOM      7  C   UNL     1     -18.302   9.712  40.045  0.00  0.00    +0.000 C 
ATOM      8  O   UNL     1     -18.409   8.763  40.815  0.00  0.00    +0.000 OA
BRANCH   7   9
ATOM      9  O   UNL     1     -19.011  10.869  40.114  0.00  0.00    +0.000 OA
BRANCH   9  11
ATOM     10  C   UNL     1     -21.062  10.661  38.836  0.00  0.00    +0.000 C 
ATOM     11  C   UNL     1     -20.436  10.665  40.220  0.00  0.00    +0.000 C 
ENDBRANCH   9  11
ENDBRANCH   7   9
ENDBRANCH   1   7
TORSDOF 3
ENDMDL
MODEL 5
REMARK VINA RESULT:      -0.8      2.883      4.581
REMARK  Name = ethyl_benzoate
REMARK  4 active torsions:
REMARK  status: ('A' for Active; 'I' for Inactive)
REMARK    1  A    between atoms: C_1  and  C_2
REMARK    2  A    between atoms: C_2  and  O_3
REMARK    3  A    between atoms: O_3  and  C_4
REMARK    4  A    between atoms: C_4  and  C_6
REMARK                            x       y       z     vdW  Elec       q    Type
REMARK                         _______ _______ _______ _____ _____    ______ ____
ROOT
ATOM      1  C   UNL     1     -17.811   9.761  38.708  0.00  0.00    +0.000 A 
ATOM      2  C   UNL     1     -17.258   8.510  38.394  0.00  0.00    +0.000 A 
ATOM      3  C   UNL     1     -16.016   8.132  38.911  0.00  0.00    +0.000 A 
ATOM      4  C   UNL     1     -15.289   9.025  39.696  0.00  0.00    +0.000 A 
ATOM      5  C   UNL     1     -15.823  10.279  39.998  0.00  0.00    +0.000 A 
ATOM      6  C   UNL     1     -17.086  10.648  39.512  0.00  0.00    +0.000 A 
ENDROOT
BRANCH   1   7
ATOM      7  C   UNL     1     -19.212  10.030  38.296  0.00  0.00    +0.000 C 
ATOM      8  O   UNL     1     -19.786   9.333  37.466  0.00  0.00    +0.000 OA
BRANCH   7   9
ATOM      9  O   UNL     1     -19.740  11.122  38.910  0.00  0.00    +0.000 OA
BRANCH   9  11
ATOM     10  C   UNL     1     -20.779  10.693  41.060  0.00  0.00    +0.000 C 
ATOM     11  C   UNL     1     -20.998  10.860  39.566  0.00  0.00    +0.000 C 
ENDBRANCH   9  11
ENDBRANCH   7   9
ENDBRANCH   1   7
TORSDOF 3
ENDMDL
MODEL 6
REMARK VINA RESULT:      -0.8      2.637      3.374
REMARK  Name = ethyl_benzoate
REMARK  4 active torsions:
REMARK  status: ('A' for Active; 'I' for Inactive)
REMARK    1  A    between atoms: C_1  and  C_2
REMARK    2  A    between atoms: C_2  and  O_3
REMARK    3  A    between atoms: O_3  and  C_4
REMARK    4  A    between atoms: C_4  and  C_6
REMARK                            x       y       z     vdW  Elec       q    Type
REMARK                         _______ _______ _______ _____ _____    ______ ____
ROOT
ATOM      1  C   UNL     1     -18.745   9.994  38.763  0.00  0.00    +0.000 A 
ATOM      2  C   UNL     1     -19.969  10.440  38.242  0.00  0.00    +0.000 A 
ATOM      3  C   UNL     1     -21.000  10.841  39.096  0.00  0.00    +0.000 A 
ATOM      4  C   UNL     1     -20.838  10.742  40.477  0.00  0.00    +0.000 A 
ATOM      5  C   UNL     1     -19.630  10.281  41.002  0.00  0.00    +0.000 A 
ATOM      6  C   UNL     1     -18.579   9.913  40.149  0.00  0.00    +0.000 A 
ENDROOT
BRANCH   1   7
ATOM      7  C   UNL     1     -17.623   9.770  37.816  0.00  0.00    +0.000 C 
ATOM      8  O   UNL     1     -17.082  10.699  37.225  0.00  0.00    +0.000 OA
BRANCH   7   9
ATOM      9  O   UNL     1     -17.310   8.455  37.674  0.00  0.00    +0.000 OA
BRANCH   9  11
ATOM     10  C   UNL     1     -18.566   7.099  36.103  0.00  0.00    +0.000 C 
ATOM     11  C   UNL     1     -17.358   7.998  36.306  0.00  0.00    +0.000 C 
ENDBRANCH   9  11
ENDBRANCH   7   9
ENDBRANCH   1   7
TORSDOF 3
ENDMDL
MODEL 7
REMARK VINA RESULT:      -0.8      2.136      2.906
REMARK  Name = ethyl_benzoate
REMARK  4 active torsions:
REMARK  status: ('A' for Active; 'I' for Inactive)
REMARK    1  A    between atoms: C_1  and  C_2
REMARK    2  A    between atoms: C_2  and  O_3
REMARK    3  A    between atoms: O_3  and  C_4
REMARK    4  A    between atoms: C_4  and  C_6
REMARK                            x       y       z     vdW  Elec       q    Type
REMARK                         _______ _______ _______ _____ _____    ______ ____
ROOT
ATOM      1  C   UNL     1     -16.466   7.861  38.969  0.00  0.00    +0.000 A 
ATOM      2  C   UNL     1     -17.293   8.160  37.876  0.00  0.00    +0.000 A 
ATOM      3  C   UNL     1     -16.742   8.586  36.664  0.00  0.00    +0.000 A 
ATOM      4  C   UNL     1     -15.366   8.776  36.555  0.00  0.00    +0.000 A 
ATOM      5  C   UNL     1     -14.538   8.500  37.644  0.00  0.00    +0.000 A 
ATOM      6  C   UNL     1     -15.082   8.036  38.850  0.00  0.00    +0.000 A 
ENDROOT
BRANCH   1   7
ATOM      7  C   UNL     1     -17.084   7.226  40.161  0.00  0.00    +0.000 C 
ATOM      8  O   UNL     1     -17.924   7.808  40.840  0.00  0.00    +0.000 OA
BRANCH   7   9
ATOM      9  O   UNL     1     -16.593   5.983  40.408  0.00  0.00    +0.000 OA
BRANCH   9  11
ATOM     10  C   UNL     1     -17.712   4.362  38.991  0.00  0.00    +0.000 C 
ATOM     11  C   UNL     1     -17.604   4.952  40.386  0.00  0.00    +0.000 C 
ENDBRANCH   9  11
ENDBRANCH   7   9
ENDBRANCH   1   7
TORSDOF 3
ENDMDL
MODEL 8
REMARK VINA RESULT:      -0.8      2.000      3.174
REMARK  Name = ethyl_benzoate
REMARK  4 active torsions:
REMARK  status: ('A' for Active; 'I' for Inactive)
REMARK    1  A    between atoms: C_1  and  C_2
REMARK    2  A    between atoms: C_2  and  O_3
REMARK    3  A    between atoms: O_3  and  C_4
REMARK    4  A    between atoms: C_4  and  C_6
REMARK                            x       y       z     vdW  Elec       q    Type
REMARK                         _______ _______ _______ _____ _____    ______ ____
ROOT
ATOM      1  C   UNL     1     -19.140  10.143  38.684  0.00  0.00    +0.000 A 
ATOM      2  C   UNL     1     -18.389   9.780  37.556  0.00  0.00    +0.000 A 
ATOM      3  C   UNL     1     -18.887  10.001  36.270  0.00  0.00    +0.000 A 
ATOM      4  C   UNL     1     -20.166  10.530  36.101  0.00  0.00    +0.000 A 
ATOM      5  C   UNL     1     -20.927  10.876  37.218  0.00  0.00    +0.000 A 
ATOM      6  C   UNL     1     -20.416  10.691  38.511  0.00  0.00    +0.000 A 
ENDROOT
BRANCH   1   7
ATOM      7  C   UNL     1     -18.484  10.070  40.015  0.00  0.00    +0.000 C 
ATOM      8  O   UNL     1     -18.024  11.066  40.563  0.00  0.00    +0.000 OA
BRANCH   7   9
ATOM      9  O   UNL     1     -18.436   8.804  40.507  0.00  0.00    +0.000 OA
BRANCH   9  11
ATOM     10  C   UNL     1     -16.220   7.988  39.952  0.00  0.00    +0.000 C 
ATOM     11  C   UNL     1     -17.150   8.452  41.060  0.00  0.00    +0.000 C 
ENDBRANCH   9  11
ENDBRANCH   7   9
ENDBRANCH   1   7
TORSDOF 3
ENDMDL
MODEL 9
REMARK VINA RESULT:      -0.8      3.008      3.909
REMARK  Name = ethyl_benzoate
REMARK  4 active torsions:
REMARK  status: ('A' for Active; 'I' for Inactive)
REMARK    1  A    between atoms: C_1  and  C_2
REMARK    2  A    between atoms: C_2  and  O_3
REMARK    3  A    between atoms: O_3  and  C_4
REMARK    4  A    between atoms: C_4  and  C_6
REMARK                            x       y       z     vdW  Elec       q    Type
REMARK                         _______ _______ _______ _____ _____    ______ ____
ROOT
ATOM      1  C   UNL     1     -18.757  10.090  38.505  0.00  0.00    +0.000 A 
ATOM      2  C   UNL     1     -18.060   9.687  39.654  0.00  0.00    +0.000 A 
ATOM      3  C   UNL     1     -18.654   9.785  40.916  0.00  0.00    +0.000 A 
ATOM      4  C   UNL     1     -19.924  10.344  41.045  0.00  0.00    +0.000 A 
ATOM      5  C   UNL     1     -20.616  10.766  39.909  0.00  0.00    +0.000 A 
ATOM      6  C   UNL     1     -20.040  10.634  38.637  0.00  0.00    +0.000 A 
ENDROOT
BRANCH   1   7
ATOM      7  C   UNL     1     -18.160   9.781  37.180  0.00  0.00    +0.000 C 
ATOM      8  O   UNL     1     -16.946   9.703  37.023  0.00  0.00    +0.000 OA
BRANCH   7   9
ATOM      9  O   UNL     1     -19.094   9.636  36.204  0.00  0.00    +0.000 OA
BRANCH   9  11
ATOM     10  C   UNL     1     -20.987   8.184  35.763  0.00  0.00    +0.000 C 
ATOM     11  C   UNL     1     -19.486   8.264  35.984  0.00  0.00    +0.000 C 
ENDBRANCH   9  11
ENDBRANCH   7   9
ENDBRANCH   1   7
TORSDOF 3
ENDMDL
